ITEM: TIMESTEP
1000
ITEM: NUMBER OF ATOMS
1508
ITEM: BOX BOUNDS pp pp pp
-1.0000000000000000e+02 1.0000000000000000e+02
-1.0000000000000000e+02 1.0000000000000000e+02
-1.0000000000000000e+02 1.0000000000000000e+02
ITEM: ATOMS id type x y z fx fy fz vx vy vz
1 1 1.02935 0.701869 0.198845 0.745237 0.426812 -2.64316 0.00239635 -0.00149285 -0.00068209
2 2 2.05958 0.72516 0.575011 -1.34494 3.00406 2.16268 -0.000194934 -0.0129975 0.00713366
3 2 0.805885 1.66888 -0.268438 1.98046 1.34893 2.25859 0.0133005 0.00172919 0.000783976
4 2 1.01657 -0.0518806 -0.598091 4.11198 -0.226363 0.0643855 -0.00336673 -0.00113192 -0.000937187
5 1 0.00647202 0.388995 1.31786 -0.876444 -0.0262964 3.59959 0.0026014 0.00392493 -0.00162919
6 1 -0.165069 -1.11011 1.80307 -4.65571 -0.284394 13.4784 -0.00247608 0.00256522 -0.000755102
7 1 -0.701274 -0.992395 3.27744 0.653252 3.57614 3.72204 -0.000515145 0.0029817 -0.000208117
8 3 1.14585 -1.96412 1.91013 1.87652 -1.07009 1.00582 0.00202764 0.00295868 -0.00250826
9 4 0.923937 -3.19656 2.5034 0.711668 12.1673 -1.87322 0.00367655 0.00492808 0.00131295
10 1 2.03626 -3.98606 2.95611 0.77867 -2.86511 -1.99658 -0.00115198 -0.000792524 0.000805216
11 5 2.24234 -1.59496 1.52985 6.40897 -3.72815 2.47673 0.004679 0.00425923 0.00275236
12 2 -0.988252 0.755869 1.0362 2.02332 3.31747 -1.37413 0.00588569 0.00333858 -0.0139727
13 2 0.289178 1.0302 2.16187 0.922401 -2.78029 2.05531 0.00182853 0.0061831 -0.00308354
14 2 0.105566 -0.740182 3.97659 0.334038 3.43814 -2.50315 0.00491399 0.0180567 -0.011936
15 2 -1.12347 -1.93367 3.65048 -0.721844 0.401634 -1.76852 0.00891951 0.00337096 0.0114699
16 2 -1.46877 -0.213199 3.3624 -1.90859 -1.76929 0.181421 -0.00546664 -0.00183194 -0.000838751
17 6 1.75528 -5.04599 2.92424 2.18209 -0.846772 2.3669 -0.00117931 -0.000678053 -0.00282124
18 6 2.29803 -3.71152 3.98544 0.556836 -0.336777 -0.290924 -0.00396544 -0.00193841 0.00182662
19 6 2.92036 -3.83483 2.32452 -0.798468 -1.70913 -1.67231 -0.00136872 0.00296063 0.00139846
20 1 -1.3245 -1.86608 1.05135 -9.23484 -1.77903 1.90398 -0.00351647 -0.00115071 -0.00018363
21 1 -1.26881 -2.19203 -0.498329 1.79289 3.56856 11.2943 0.00170789 0.00138027 -0.000727134
22 1 -2.52016 -3.07105 -0.705813 -0.582224 -7.56456 -0.511859 0.00143508 0.000594566 0.000637141
23 3 -1.48816 -0.854461 -1.26926 1.60125 -2.09838 -1.38406 -0.00113432 0.00158645 0.00144001
24 4 -0.537978 -0.648591 -2.22825 1.11723 -5.47343 -13.2614 -0.000190344 3.48763e-05 0.00153846
25 1 -0.432349 0.58945 -2.96771 -0.607505 0.781732 9.55809 -0.00410789 -0.00497479 -0.00152626
26 5 -2.31443 -0.0227681 -0.927758 0.235703 7.3085 -12.2594 -0.00573963 -0.00285358 -0.0022995
27 2 -1.47905 -2.80657 1.5945 1.82423 -1.72044 -1.98384 -0.00914149 0.000517578 0.00111207
28 2 -2.25975 -1.32548 1.24229 0.558242 1.71553 0.273117 -0.00293319 0.00287987 -0.00874648
29 2 -3.44583 -2.49711 -0.574887 0.284976 0.221149 -2.38045 -0.00226216 -0.00549678 0.0012119
30 2 -2.52157 -3.53874 -1.69812 -2.96559 -1.1553 0.23999 0.00420701 0.00275845 -0.000388654
31 2 -2.55589 -3.88568 0.0280173 -3.20779 0.385202 0.793378 0.00793799 0.000896302 0.00129431
32 6 -0.47704 1.41159 -2.24279 -0.600447 5.67903 -5.82221 -0.0113133 -0.0028887 -0.00434616
33 6 0.530879 0.629982 -3.49112 -0.796689 0.229197 0.139231 0.00101572 0.000345406 0.00831095
34 6 -1.22524 0.702496 -3.71734 -2.77634 -1.10886 4.40694 0.00734023 -0.00122311 -0.0130907
35 1 0.114065 -2.935 -0.75418 -3.75303 -0.369358 -2.24764 0.000895901 0.000803678 0.000183838
36 1 0.492614 -3.9604 -1.90285 3.13909 -14.2295 -5.17929 0.0021318 -0.0011961 -0.000817964
37 1 2.03284 -4.18606 -1.58711 -1.77736 -4.48531 5.52033 0.00315765 -0.00725389 0.00245589
38 3 -0.237001 -5.36984 -1.70326 6.98843 -5.81264 3.04669 -0.00320516 -0.000113427 -0.0015936
39 4 0.516086 -6.43181 -2.16609 -1.30803 11.1421 -3.73349 -0.00213918 -0.00218607 -0.00106071
40 1 0.000560294 -7.77497 -2.03665 1.37837 1.06017 5.55098 -0.000257323 -0.00238772 -0.00228522
41 5 -1.19162 -5.55603 -0.965601 4.74419 -3.60708 -7.132 -0.00105529 0.000586522 0.00113236
42 2 0.897818 -2.16808 -0.723007 -0.0642087 -0.450423 0.619909 -0.00335994 0.00523246 -0.00174326
43 2 0.251685 -3.55838 0.13793 1.28761 0.680719 -0.130535 0.00694563 0.00600766 0.00288385
44 2 2.17031 -4.6859 -0.62033 -0.676909 1.21495 1.22469 0.00159746 -0.000930561 0.00594406
45 2 2.52412 -4.82534 -2.331 1.33557 -2.26423 3.09343 0.00259251 -0.00950985 0.0040235
46 2 2.59038 -3.242 -1.55095 1.13221 -1.18094 -1.47936 0.00700475 -0.00932499 -0.00288572
47 6 -0.798992 -7.95209 -2.76655 0.398934 -0.590496 0.332197 -0.000808315 -0.00390069 -0.00131429
48 6 0.808601 -8.50163 -2.18643 -1.24142 -0.562772 -3.57525 -0.000167429 -0.00177334 -0.00476769
49 6 -0.405426 -7.93006 -1.02941 -0.0376829 -1.52001 0.127708 0.00251304 -0.000860347 -0.000932712
50 1 0.601873 -3.4143 -3.40466 -11.5796 4.22192 -13.0357 0.0048751 0.00115592 -0.00206693
51 1 -0.511836 -3.5296 -4.5809 6.39084 9.22876 -1.84745 0.00100346 -0.00035172 8.04475e-05
52 1 0.271901 -3.35824 -5.93192 6.26439 -1.55727 3.38042 -0.00390813 0.00223765 0.000833173
53 3 -1.48191 -2.29528 -4.54186 5.89527 -4.68475 -2.77575 -0.00123338 -0.00254267 -0.00272338
54 4 -2.59672 -2.55708 -3.80003 2.25497 5.29778 -0.593164 0.0021835 0.000387065 0.00508023
55 1 -3.65884 -1.59236 -3.72234 -1.91048 3.92171 -2.13345 -0.00104292 -0.00122628 0.00241538
56 5 -1.32128 -1.2941 -5.23819 -15.4473 -3.66942 8.09783 -0.00515013 -0.00148345 -0.00259933
57 2 1.4578 -3.92389 -3.86415 -0.401824 0.785856 -0.453419 0.00407713 -0.00162309 -0.00047167
58 2 0.935182 -2.37213 -3.32605 -0.288215 0.376202 -4.68475 0.00683198 0.000748338 -0.00499161
59 2 -0.389266 -3.14698 -6.78142 -0.384072 0.0432941 1.29882 -0.0100361 0.00677151 0.00673316
60 2 0.883459 -4.23582 -6.17534 0.747095 0.388177 0.160357 -0.0117094 -0.00129833 -0.00602063
61 2 0.95765 -2.50437 -5.86819 -0.161733 0.343737 -0.338497 0.00123936 -0.0019227 0.0012052
62 6 -4.28911 -1.79274 -2.84712 -1.28832 -0.65919 -1.29083 -0.00466717 -0.00320526 -0.000649898
63 6 -4.27629 -1.64122 -4.62776 -1.52902 0.437802 0.758659 -0.00115346 0.00069721 0.00238703
64 6 -3.26281 -0.57293 -3.6367 0.577552 -0.144592 1.79037 -0.00379596 -0.000204104 0.00298187
65 1 -1.21977 -4.9451 -4.5638 -10.6937 -6.14667 6.79795 0.00283243 -0.00298031 -0.00467331
66 1 -2.24126 -5.47181 -5.67332 -6.95769 -1.30398 -8.74374 -0.00193924 -0.00106682 -0.00346115
67 1 -3.00253 -6.71114 -5.07727 4.96641 0.935152 5.53855 -0.000770545 1.54582e-05 -0.00152265
68 3 -3.37218 -4.37766 -6.00275 1.7078 -0.283147 -4.20753 -0.000143534 0.00146002 0.000496513
69 4 -3.01585 -3.52941 -7.01964 3.21877 5.27128 1.45703 -0.00200657 0.000894941 -0.000524995
70 1 -4.0063 -2.58732 -7.53029 5.23669 -5.14495 0.782275 0.00198493 0.0042386 0.00118021
71 5 -4.53095 -4.43039 -5.61816 2.15901 -5.89865 5.80122 -0.000411666 0.000655248 0.0026877
72 2 -0.449243 -5.71137 -4.41372 1.45327 1.80049 0.319468 0.00276279 -0.00299885 -0.00441005
73 2 -1.80123 -4.96605 -3.63381 -0.874968 0.895763 0.519441 0.00772646 -0.00505125 -0.00165941
74 2 -3.47767 -6.45467 -4.12235 -1.07132 0.719376 -0.986586 0.0123471 0.00283405 0.00425288
75 2 -3.80471 -7.03573 -5.75149 0.708732 -0.785899 0.731106 -0.00529263 -0.000907197 0.00430223
76 2 -2.34966 -7.56853 -4.87225 3.29647 2.56365 1.31932 0.00321236 0.002313 -0.00461235
77 6 -4.80453 -3.12643 -8.05527 0.275635 0.481931 -0.369802 -0.00153729 0.00316512 0.00763684
78 6 -4.46677 -2.02309 -6.70991 1.13289 0.953942 -0.679081 0.00905346 0.00683991 0.00335689
79 6 -3.53789 -1.87777 -8.2235 0.219801 -0.534426 -0.106186 -0.000230209 0.00206363 -0.00254245
80 1 -1.55818 -5.93851 -7.05143 5.89058 0.0890092 -14.3812 -0.000953667 -0.00158654 0.00180641
81 1 -0.585892 -7.21679 -7.2902 -6.80024 2.2652 7.71471 -0.00276295 0.000381205 0.00273057
82 1 0.121915 -6.99389 -8.72751 -9.64003 12.3632 14.1221 -0.00305006 0.000629271 0.00153238
83 3 0.484029 -7.28161 -6.12778 1.54235 0.632578 -2.85665 -0.00175367 -0.000561378 0.00164672
84 4 1.53751 -6.47687 -6.41934 5.89833 -0.729812 -0.617498 1.43869e-05 -0.000723035 0.000886295
85 1 2.65111 -6.45816 -5.51975 5.88383 0.595623 3.86806 -3.70337e-05 0.00111445 0.00391542
86 5 0.40802 -7.88979 -5.06588 -7.7525 0.79429 -12.245 -0.00171033 0.00134657 0.00219404
87 2 -2.3853 -6.07696 -7.75861 0.101775 2.4514 -1.11345 0.00163159 0.00193283 -0.00190418
88 2 -1.02344 -5.06331 -7.44064 0.599134 -1.13739 -3.40924 0.00252888 -0.00151272 0.00675138
89 2 0.628494 -6.0214 -8.76016 0.226072 0.49853 1.24537 -0.00369256 0.000977365 0.00192653
90 2 0.89666 -7.72663 -8.98493 -0.916595 0.874632 1.32941 -0.00334972 0.000519664 0.000942461
91 2 -0.610766 -6.96283 -9.54337 -0.00149432 -1.60889 0.366639 -0.00243545 0.00185927 0.00102664
92 6 2.31785 -6.2586 -4.49382 0.180302 1.26125 -0.183504 -0.00594943 -0.00497708 0.00318077
93 6 3.15467 -7.43272 -5.5277 1.01215 0.409983 0.0214364 -0.000128422 0.00111672 -0.00210549
94 6 3.36269 -5.68016 -5.82272 1.10816 -0.546085 0.718284 0.000890307 0.00316493 0.0113605
95 1 -1.49501 -8.50715 -7.47108 2.93616 -8.49562 -10.6961 0.000537352 -0.00151071 -0.00160345
96 1 -0.889078 -9.99303 -7.48299 -0.160373 4.1045 2.5356 0.0019478 -0.00194366 -0.000405237
97 1 -2.02271 -10.8494 -8.07963 -1.20792 -3.97825 -7.69519 9.97954e-05 0.0022565 -0.00553573
98 3 0.406445 -10.0812 -8.39634 -5.53604 -10.54 7.80193 0.00134052 -0.00179601 0.00195603
99 4 1.51991 -9.77151 -7.70166 12.883 5.88282 3.45027 0.000154406 0.000352642 0.00123326
100 1 2.79097 -9.83382 -8.37347 2.78167 4.25196 1.63962 -0.00227516 -0.00190122 -0.000259362
101 5 0.462528 -10.5409 -9.52461 -11.2645 -0.89721 -0.61993 0.0018701 0.000317356 -0.000179497
102 2 -2.38089 -8.48788 -6.82436 3.25979 -1.20036 3.20025 -0.000860592 -0.00384508 -0.00344543
103 2 -1.95107 -8.38061 -8.46073 -2.22627 1.983 0.694836 -0.00545416 -0.00246318 0.00103929
104 2 -2.30498 -10.4648 -9.06747 -1.69906 -2.3107 -0.514945 0.0127972 0.000676726 -0.00978277
105 2 -1.68815 -11.8813 -8.24301 -1.51073 -0.69752 0.0739355 -0.00417715 -0.000387972 0.00242468
106 2 -2.91658 -10.8387 -7.4438 -0.822601 0.768715 -1.8832 -0.00251759 0.00798321 -0.00931604
107 6 3.59893 -9.58375 -7.67485 0.553768 0.237598 -0.318417 -0.000754744 0.00287683 -0.00372843
108 6 2.97181 -10.8414 -8.76773 1.97541 0.765515 0.0409652 -0.00187875 -0.00362677 0.00433211
109 6 2.80522 -9.12914 -9.21408 2.294 0.211834 0.181928 -0.00743818 -0.00518437 -0.00310163
110 1 -0.61477 -10.4222 -5.97606 1.77679 -0.139704 14.5866 -3.00333e-05 -1.32225e-05 0.00110896
111 1 -0.751374 -11.859 -5.30482 5.20917 -2.7921 -7.66278 6.13349e-05 -0.00129601 -0.00104394
112 1 -0.178885 -11.6071 -3.83445 -2.12909 -2.3649 -3.56338 0.00283344 0.0026375 0.00103997
113 3 -2.25244 -12.2947 -5.22822 -1.34918 5.1578 2.02829 0.000320274 -0.000564984 0.00602347
114 4 -2.71252 -13.0573 -6.29722 2.6354 5.94497 12.7548 -0.00229325 0.000744858 0.00704282
115 1 -4.06506 -13.5576 -6.20999 -1.21629 -0.42108 -0.37376 -0.000417879 -0.000371711 0.00756442
116 5 -2.88724 -12.091 -4.20808 -15.234 -3.02707 -3.85909 0.00200626 0.00172681 0.0048274
117 2 0.407274 -10.1245 -5.71117 0.964705 0.0103716 -1.99336 -0.000774785 0.00102199 0.00282354
118 2 -1.24239 -9.77305 -5.35311 -2.3122 -1.02303 -0.241497 -0.00245022 -0.00198369 0.000721233
119 2 -0.593681 -10.6895 -3.39937 0.155645 0.318337 -1.17924 0.00244835 0.00438398 -0.00301271
120 2 -0.459438 -12.3908 -3.11989 0.4433 -1.35998 -1.3403 0.00128109 0.00352755 0.00140727
121 2 0.913485 -11.5076 -3.81957 -0.375627 1.5848 -1.89424 0.00292093 0.0024115 -0.00397501
122 6 -4.28071 -14.2704 -7.01553 1.63992 1.31435 -1.3791 0.00415113 -0.00778672 0.0128999
123 6 -4.21687 -14.0799 -5.25732 0.644836 -0.274254 -0.190565 0.000599687 0.00618813 0.0113231
124 6 -4.77414 -12.7224 -6.26421 -1.11957 -1.32126 -0.0846693 0.00107689 0.000122563 -0.0043757
125 1 0.148182 -12.9283 -6.03601 3.68132 -5.54418 -7.18599 -0.000171231 -0.000638384 -0.00164913
126 1 0.458113 -14.3557 -5.3532 3.93916 -5.64444 12.1669 0.00161815 0.000476995 -0.000707846
127 1 0.29108 -15.5382 -6.39388 2.29834 6.61625 0.784818 0.00228464 0.000452494 -0.00189253
128 3 -0.564247 -14.713 -4.16366 -1.40738 -0.90709 -4.73102 0.000398542 -0.00159207 -0.00142686
129 4 0.00875482 -14.8973 -2.9228 1.83844 3.33031 -2.21337 -0.000287463 0.00148048 -0.00126095
130 1 -0.83222 -15.2885 -1.81074 0.0778158 0.813723 -2.7623 0.003258 -0.00126242 0.00198045
131 5 -1.74777 -14.9299 -4.34856 -1.14114 -6.83 0.0730193 0.000175604 -9.60906e-05 -0.00155477
132 2 1.09259 -12.4134 -6.25128 1.07144 -1.2603 0.965077 -0.000535135 -0.00131663 -0.00487267
133 2 -0.266394 -13.1055 -7.03607 -1.41108 -1.9863 0.439176 0.00182859 -0.00516423 -0.00167533
134 2 -0.766274 -15.7189 -6.62354 -0.185618 3.52177 -0.377156 0.00207626 -0.00194153 0.000943567
135 2 0.660092 -16.4826 -5.97518 -0.268681 0.429893 -0.271983 0.00926789 0.000695276 -0.00749879
136 2 0.784819 -15.3543 -7.35607 1.74132 0.355798 0.867505 -0.0005273 0.00349708 -0.00275466
137 6 -0.244056 -15.3663 -0.888017 0.200679 -0.0124952 -0.967408 0.0120286 -0.0118781 -0.00450682
138 6 -1.29834 -16.2588 -2.0223 -0.290586 0.194722 1.48466 -0.00409774 0.00399053 -0.00591439
139 6 -1.6291 -14.5499 -1.65948 0.341289 -0.145036 0.369213 0.00996858 0.0043684 0.00983107
140 1 1.94361 -14.3426 -4.7417 4.96685 -5.10711 4.63169 0.00122538 0.00443274 0.000523799
141 1 3.31051 -14.4049 -5.57223 5.41244 5.34428 2.31903 -0.00107077 0.000185436 -0.000560325
142 1 4.39165 -13.7783 -4.59922 -2.0764 -3.98937 5.52304 -0.000636581 -0.00312149 0.00239918
143 3 3.27429 -13.4786 -6.8418 4.3318 -5.76408 -2.72509 0.00460383 -0.00084646 -0.00360204
144 4 2.73809 -14.0907 -7.93482 -1.59518 -3.09045 -1.07682 0.00195708 0.00305288 -0.00394843
145 1 2.81387 -13.4483 -9.2249 -2.06744 -2.01995 -1.81641 0.00300512 0.00988201 -0.000928528
146 5 3.83956 -12.3972 -6.89368 -1.86972 2.82061 -3.6181 0.00154517 0.00227113 -0.000923101
147 2 2.03173 -15.1966 -4.05881 -1.63705 -0.58906 0.0496147 0.0040874 0.011039 0.00841898
148 2 1.98775 -13.48 -4.06531 -1.03795 0.743761 -1.35018 0.000126476 0.0104356 -0.00706596
149 2 4.07412 -12.7991 -4.22009 -0.633866 -0.112204 -0.870015 0.0034771 0.000328137 -0.00306849
150 2 5.35386 -13.5913 -5.09176 -0.241562 -0.00835279 0.667953 0.00252348 -0.00498397 0.00786579
151 2 4.57889 -14.4198 -3.72925 -0.376559 0.329387 0.912193 -0.00402448 1.15103e-05 0.00543759
152 6 2.59272 -14.1685 -10.0223 -0.194718 -0.0691882 -0.0592201 -0.00294737 0.0141813 -0.00316048
153 6 3.82322 -13.0512 -9.38897 -0.834911 0.565364 -2.03325 0.00503646 0.00582384 0.00173361
154 6 2.08161 -12.6346 -9.29664 -0.00411649 -0.0177232 0.3138 0.00358512 0.0107219 0.00268359
155 1 3.73183 -15.9542 -5.7663 -2.62245 4.89357 -9.3607 0.00231358 0.00116267 0.000325929
156 1 4.97641 -16.4641 -6.64806 1.24657 10.55 -2.3902 0.000239214 0.00164817 -0.000267064
157 1 5.2955 -17.8878 -6.02021 5.03712 13.1353 -7.37924 -0.00214294 0.0021218 0.00130892
158 3 6.20376 -15.4328 -6.54833 -1.61166 -16.6288 -10.1893 0.000686455 0.0011418 0.000884912
159 4 6.15733 -14.4281 -7.49398 -7.66536 -1.83142 3.95386 0.00265071 -0.00136267 -0.000415429
160 1 7.29629 -13.5572 -7.6834 1.30426 -4.12479 4.47148 0.00438873 -0.00436236 -0.00491301
161 5 7.21574 -15.6684 -5.92032 4.519 -2.54205 6.66196 0.00144956 -0.00350415 -0.00333324
162 2 2.85475 -16.5279 -6.09029 -0.590185 1.23351 -1.18146 0.00394531 -0.000363893 -0.00138875
163 2 3.91472 -16.3196 -4.74824 -3.05625 -0.0426754 -0.455539 0.000383959 -0.000548383 5.72061e-05
164 2 5.53641 -17.7999 -4.95361 0.494782 -1.06555 -0.577305 0.00439471 0.00485211 -0.000391658
165 2 6.18054 -18.3282 -6.49573 0.711895 -1.6921 2.99019 -0.00748857 -0.00544168 -0.00163094
166 2 4.45145 -18.5802 -6.12729 1.10475 0.355642 -0.566851 -0.00429978 0.00409273 0.00555881
167 6 7.09002 -12.8056 -8.45534 -0.777134 -0.304389 0.988456 0.000749438 0.00208757 0.00234205
168 6 8.16603 -14.1521 -7.98857 0.565013 1.75451 -0.781682 -0.00352189 -0.0106735 -0.0151599
169 6 7.54852 -13.055 -6.74127 -0.707267 1.56526 -1.15376 0.016592 -0.0156813 -0.0021389
170 1 4.53333 -16.6596 -8.17743 -4.81543 -0.968792 -2.55993 0.00286818 0.00299398 -0.00125058
171 1 5.37206 -17.4579 -9.29292 -0.219896 -6.19447 2.38188 0.00107323 0.000769882 -0.000663593
172 1 4.81452 -16.8525 -10.6605 0.324068 -11.5779 13.0908 -0.00133321 0.00204643 -0.00264176
173 3 5.07462 -19.0328 -9.13512 -1.99924 7.59303 -2.7051 -0.00113071 -0.000359745 -0.0021021
174 4 6.07314 -19.7177 -8.49136 2.6594 4.8933 3.50429 -0.000487956 0.000897523 -0.00530309
175 1 6.00733 -21.1549 -8.32805 -4.75334 2.25818 1.23552 -0.00110578 0.000191052 0.00300609
176 5 4.14094 -19.6152 -9.65408 -7.62881 3.67709 -5.88715 -0.00316208 -0.000376158 0.000415527
177 2 4.37999 -15.654 -8.58805 1.22205 0.506988 0.885235 0.00939573 0.0033386 -0.00283965
178 2 3.52624 -17.0944 -8.18985 0.13955 -0.591327 1.4781 -0.00144597 0.013116 -0.00601882
179 2 3.7177 -16.85 -10.6803 0.0798536 0.0088641 1.86997 -0.00129806 -0.00269756 -0.00524014
180 2 5.11142 -17.4411 -11.5373 -0.550047 0.924203 -0.141121 0.00257137 0.00942902 -0.00627209
181 2 5.15397 -15.8168 -10.785 -1.60243 -1.00442 -2.11043 -0.0031115 0.00365099 0.00581546
182 6 6.90477 -21.5218 -7.81485 -0.267593 0.201773 -0.184536 0.00103281 0.00137962 0.000115608
183 6 5.92663 -21.6548 -9.30119 1.20472 -0.453705 0.409695 -0.00657406 -0.00291312 0.00505283
184 6 5.12013 -21.4301 -7.74447 0.754073 0.0553577 1.62326 -0.000971059 0.00590236 0.00590293
185 1 6.92903 -17.1492 -9.18084 2.07044 5.70323 5.56109 0.000474045 0.00146054 0.000512847
186 1 8.00671 -17.6168 -10.2558 4.34022 6.21786 -0.585958 0.00043409 -3.08862e-05 0.000598546
187 1 9.40751 -17.4894 -9.53157 -11.8931 -1.96047 4.9769 0.0017413 0.000717095 -0.00130993
188 3 7.7578 -19.104 -10.713 6.56176 0.383153 -1.82195 0.00213267 0.000170853 0.000535227
189 4 6.68523 -19.2236 -11.5394 -4.64131 1.5018 -3.69006 -0.00217697 -0.00160344 0.00633885
190 1 6.31415 -20.5086 -12.0697 1.38497 0.680031 -1.69686 0.00324116 -0.00203884 0.00113997
191 5 8.48748 -20.0418 -10.4471 2.27519 -2.62663 5.05701 0.000998376 -0.000194226 0.00161528
192 2 7.03926 -16.0601 -9.10908 -0.712609 0.407232 2.5337 -0.00267708 0.00184414 -0.000470874
193 2 7.26249 -17.5194 -8.20351 1.01359 0.043274 0.012113 0.0014752 0.00125117 9.17135e-05
194 2 9.44696 -18.1257 -8.63884 -2.28689 0.912344 1.22369 -0.000845881 0.000603611 -0.00127725
195 2 10.2493 -17.8321 -10.1458 -0.117261 -0.0273909 1.5546 0.00128533 0.00132542 -0.00227476
196 2 9.5885 -16.455 -9.2142 0.844548 -1.06696 2.26648 -0.000288884 0.00132385 -0.00212594
197 6 6.2166 -21.248 -11.2652 -1.20218 -0.469402 -0.940558 0.00164446 -0.00708846 -0.00369698
198 6 7.08167 -20.8665 -12.767 -1.25938 -0.269277 -1.15087 0.00948583 0.00486758 0.00446486
199 6 5.35142 -20.4252 -12.5889 0.176473 -2.03467 -0.391005 0.00564095 -0.00549824 -0.00386194
200 1 7.97057 -16.5755 -11.4672 4.06361 4.19666 -11.7132 -0.000482203 -0.000199782 0.00120119
201 1 9.2072 -16.4159 -12.4666 7.78181 -4.66715 -4.29407 -0.000898622 8.43559e-05 0.00112266
202 1 10.2322 -15.3701 -11.8565 -5.26358 0.796588 1.48764 -0.000484433 -0.00126796 0.000998378
203 3 9.97033 -17.7809 -12.6776 6.34919 -2.91495 -0.760256 0.000318973 0.000128375 -0.00213341
204 4 9.19657 -18.7587 -13.2307 -2.68825 -4.17902 -2.19559 0.000710025 0.00022156 -0.00311319
205 1 9.74076 -20.1001 -13.3593 3.46189 6.45251 -0.755868 -0.00450742 -0.00163696 -0.000159231
206 5 11.1449 -17.9607 -12.3863 -2.48249 1.20285 -5.38941 0.00183086 0.000953313 -0.00448721
207 2 7.10001 -16.8238 -12.0868 -2.10756 -1.37397 3.15577 -3.10254e-05 -0.000573775 0.000716304
208 2 7.75844 -15.5741 -11.0729 -1.00277 0.227032 -1.40008 -0.00115761 0.000110057 5.01771e-05
209 2 10.7345 -15.7367 -10.9528 0.457897 -0.507391 -0.698323 0.00351232 -0.00390417 -0.00229417
210 2 11.0377 -15.1394 -12.5647 -1.03341 -0.895203 -0.459955 -0.00776846 -0.000439942 -0.00701424
211 2 9.73938 -14.4265 -11.5916 -0.351759 0.429638 -1.23038 0.000522412 -0.0021026 0.00584991
212 6 9.07284 -20.7407 -13.9483 -0.751933 0.532162 1.25963 -0.00574677 0.00273384 -0.00350855
213 6 10.7215 -20.0696 -13.8499 -0.64849 -0.212129 -1.93737 -0.00324355 -0.0032214 0.00226687
214 6 9.8891 -20.536 -12.3636 0.343852 -2.8573 -1.65298 -0.0106085 -0.00228953 0.000463846
215 1 8.8555 -15.8013 -13.9162 -2.47858 7.26596 -3.4519 -0.00164544 -0.000139351 0.000774139
216 1 7.41328 -15.8261 -14.6014 -2.99888 0.317416 -0.480191 -0.00181419 -0.000211049 0.00282513
217 1 7.55245 -15.0942 -15.9751 6.92943 -0.666055 4.81235 -0.00162147 -6.43124e-05 0.00403418
218 3 6.41681 -14.945 -13.7543 -0.0475352 1.62126 -5.09352 -0.00111944 -0.000779532 0.00079499
219 4 6.83452 -13.6425 -13.644 -0.186482 -1.99977 5.40059 -0.000347917 0.000703631 -0.00347433
220 1 6.00166 -12.707 -12.9226 5.63933 -2.27226 0.347549 0.00199263 -0.000685528 -0.00316338
221 5 5.34803 -15.3214 -13.326 -4.71552 -1.92787 7.20765 0.000274651 0.000378461 0.0024171
222 2 9.56481 -16.2189 -14.6414 0.740319 -1.48093 1.96524 -0.00554684 -0.00460357 -0.000470312
223 2 9.13686 -14.7411 -13.9007 0.130843 0.475912 1.01213 0.00151307 -0.000970936 0.000310198
224 2 6.56416 -14.9157 -16.4165 1.17488 1.09133 -0.430125 -0.000650962 2.66924e-05 0.00189914
225 2 8.00545 -14.1029 -15.8499 1.18689 -0.170369 -0.945712 -0.00121065 -0.000468222 0.0057498
226 2 8.19004 -15.6535 -16.6709 0.436671 0.594313 -0.240722 -0.00169917 -0.00146674 0.00508981
227 6 5.78282 -13.0902 -11.9183 -1.25738 -0.113858 -0.389778 0.00631158 -0.0039677 -0.00347292
228 6 6.54264 -11.7593 -12.81 -4.16205 2.55383 -1.30112 0.00424314 -0.00148728 -0.00721412
229 6 5.05451 -12.5522 -13.454 0.152741 2.014 1.26476 0.00166734 0.0011191 -0.00205578
230 1 6.96722 -17.3417 -14.842 1.14783 3.47364 -6.6503 -0.000598389 -0.000176698 -0.000426048
231 1 5.99093 -17.8476 -16.0064 -6.04855 2.11173 7.37663 -0.000533155 -0.000619845 0.00189018
232 1 5.9335 -19.3891 -15.7074 1.75492 -2.13962 -0.0153783 0.000109933 -0.000957209 0.0028655
233 3 6.62754 -17.652 -17.4479 3.18096 -2.05605 0.397106 0.000358914 -0.000946231 -0.000725648
234 4 6.20727 -16.5291 -18.1328 -4.98608 -5.50204 3.6691 -0.00571476 -0.00568374 -0.000900291
235 1 6.69897 -16.2671 -19.4628 2.52849 -6.23303 1.56795 -0.00834706 -0.00318013 -0.000305625
236 5 7.3855 -18.4736 -17.9399 1.04501 1.68385 -6.23179 0.00320028 0.000622821 -0.000872178
237 2 6.56857 -17.7356 -13.899 2.51664 -0.175534 0.17066 0.0049336 -0.00269063 0.000858862
238 2 7.89808 -17.8866 -15.0419 -0.122976 -0.410886 1.07079 0.000575056 0.00416248 -0.00680421
239 2 6.92387 -19.8471 -15.8206 0.876779 1.05641 2.41788 0.00287546 0.00404835 0.00683892
240 2 5.2978 -19.9449 -16.4076 0.779174 -2.11531 1.07236 0.00161764 0.00256024 -0.00129818
241 2 5.6042 -19.5957 -14.6815 -0.0208699 -0.814929 -0.277517 -0.00585189 -0.00159736 0.000822347
242 6 6.14126 -15.4435 -19.9254 1.53977 0.569633 0.659854 -0.0128972 -0.00682695 -0.00131799
243 6 6.58849 -17.1665 -20.0811 -1.87324 1.27449 -2.10399 -0.00803695 -0.00379052 0.000525644
244 6 7.76797 -16.0237 -19.4255 -0.404365 2.16224 -0.76814 -0.00922986 0.000500747 0.000923517
245 1 4.55206 -17.1742 -15.8482 -7.278 -0.819506 5.66723 -0.00157411 -0.000570441 0.00197336
246 1 3.16795 -17.9633 -16.0694 -0.0344172 -0.808533 5.19565 -0.00170257 -0.000242151 0.000869966
247 1 2.80308 -18.7177 -14.6992 8.8493 -0.103958 -6.64209 -0.000608732 -0.000441645 0.00422743
248 3 3.19862 -19.0301 -17.252 -4.1906 -0.819471 -7.62426 -0.00350255 0.00114594 0.000750095
249 4 4.07294 -18.7134 -18.2598 2.89223 6.21481 -4.0563 -0.00110453 -0.00118882 0.00112521
250 1 4.39066 -19.6688 -19.3164 -9.41787 2.4443 8.55692 0.002764 -0.000134482 0.000713005
251 5 2.63266 -20.1126 -17.2205 -1.58837 0.580914 4.81087 -0.000106598 -0.000382349 0.00211341
252 2 4.55468 -16.2321 -16.4102 -0.75418 -0.0193629 0.636873 -0.000410332 -0.00269073 -0.00157599
253 2 4.48097 -16.8446 -14.8043 -1.79316 -0.0579749 0.375181 -0.00416891 -7.63214e-05 0.00164004
254 2 3.49469 -19.5406 -14.4802 -0.217559 -1.02137 -1.4382 0.000864663 0.00134986 0.00631068
255 2 1.80717 -19.1763 -14.7336 0.275602 1.1148 -1.99569 -0.000537482 -0.000571573 0.00389886
256 2 2.82281 -18.0483 -13.8303 0.15459 0.828376 -1.21384 -0.00354086 -0.000846134 0.00460535
257 6 5.06436 -19.2207 -20.0572 1.31746 -0.715021 2.11539 0.00319381 0.00249382 0.00269395
258 6 3.4764 -19.9887 -19.8314 -0.514428 0.914581 -0.0984987 0.0045213 0.00166819 -0.00352416
259 6 4.85328 -20.5601 -18.8749 2.53579 0.284282 -2.65711 0.00506485 0.00141125 0.00142005
260 1 1.90457 -16.979 -16.1941 -2.82432 -0.822086 -1.33131 -0.00179914 -0.00182705 0.00111241
261 1 1.71938 -15.772 -17.2467 -1.97564 -4.7278 0.10332 0.00141936 -0.00385524 0.000707189
262 1 2.57979 -16.0926 -18.5263 -6.86659 -0.922323 2.4764 0.000146849 -0.00563361 -0.00501589
263 3 0.196372 -15.6281 -17.7489 2.34702 -4.52797 -0.440297 -0.000909415 -0.000984031 0.00346069
264 4 -0.699691 -16.5213 -17.2178 4.26905 1.43003 4.20347 -9.15059e-05 -0.00395148 -4.07644e-05
265 1 -2.07958 -16.4222 -17.6375 3.54574 -1.4621 -0.823652 0.000473512 -0.00507421 0.000580484
266 5 -0.179529 -14.7848 -18.5452 9.71124 1.36525 -10.7237 0.00036823 -0.0041842 0.000101216
267 2 1.08235 -17.688 -16.351 -0.173251 0.145519 -1.20373 -0.00320649 -0.000927046 0.00441426
268 2 1.69563 -16.5757 -15.1955 1.38114 1.78861 -0.57191 0.00144086 0.00118489 0.000571668
269 2 3.65689 -16.1497 -18.3263 -0.593232 -0.597744 -0.402851 0.000211631 -0.0120477 -0.00720107
270 2 2.24282 -17.0422 -18.96 1.55281 0.462062 -2.23078 -0.00681152 -0.00185433 -0.00788702
271 2 2.4642 -15.3309 -19.3073 -3.2587 0.983685 1.77723 0.0059679 -0.00295642 -0.0032691
272 6 -2.70573 -17.1276 -17.0774 0.0527143 0.00350988 -0.359137 0.0034783 -0.0034586 0.00597484
273 6 -2.44451 -15.4022 -17.4646 -3.6058 -1.23969 -1.99707 0.00142074 -0.00403413 -0.00356026
274 6 -2.16077 -16.6622 -18.7049 -1.97226 1.12615 -0.10524 0.00102481 -0.0105415 0.00176607
275 1 2.26498 -14.374 -16.6765 -10.9971 11.2914 5.20246 0.00381241 -0.005048 0.00667571
276 1 1.46421 -13.3955 -15.6333 4.08098 -3.10285 -2.02831 0.00117503 -0.000547877 0.00468106
277 1 2.32859 -12.0722 -15.6093 -0.699555 -2.47918 -4.84346 0.00192968 -0.00131846 0.00537703
278 3 1.48117 -13.9744 -14.1702 -3.38689 -4.64097 -1.22666 0.00326332 0.00223931 0.00589046
279 4 0.541619 -14.9419 -13.9235 0.95906 -1.09693 -2.91638 0.00249851 0.00279073 0.00552614
280 1 0.606367 -15.6428 -12.6562 1.8111 2.57812 -4.24453 0.00334536 0.00515937 0.00562857
281 5 2.20056 -13.5336 -13.2949 6.9722 1.21718 12.4604 0.00634469 -0.000268519 0.0032783
282 2 2.4105 -13.7447 -17.5632 1.72476 -0.734382 -0.281989 0.00682949 -0.00341213 0.00833285
283 2 3.27541 -14.5325 -16.2799 -1.05121 1.34998 0.915995 0.00387421 -0.00393076 0.0069644
284 2 3.37724 -12.2975 -15.3791 -0.0354178 -0.306492 -0.729266 0.00289467 0.00147201 0.00371206
285 2 1.99731 -11.3713 -14.8331 -0.621958 -0.765636 -0.181536 0.0039852 -0.00292983 0.0077094
286 2 2.31253 -11.5473 -16.5724 0.528196 -1.57672 -1.14772 -0.000331921 -0.000677762 0.00576341
287 6 -0.200581 -16.3824 -12.5843 0.72707 -0.0995425 0.0565011 0.00876047 -0.00111856 0.00181452
288 6 0.527698 -14.9354 -11.8215 -0.268558 -0.341154 -0.272112 -0.00735487 0.00648613 0.00349489
289 6 1.57578 -16.1494 -12.5727 -1.56708 -2.47168 1.68753 0.00658966 0.011626 0.00724541
290 1 -0.0163545 -13.0505 -16.1262 -1.76582 2.73347 4.98055 -0.00134708 -0.00190423 0.00533736
291 1 -0.878515 -11.8169 -15.5552 8.54552 1.28515 -3.90079 -0.000362187 -0.00125747 0.00480879
292 1 -0.919127 -11.8803 -14.0045 2.55013 -2.82379 -0.512573 0.00198625 -0.00640248 0.00301532
293 3 -0.209596 -10.4485 -16.0494 -7.20026 -2.57466 -4.56386 -0.000276291 -0.00208294 0.00564235
294 4 0.115995 -10.501 -17.3827 0.787061 8.49785 -0.87523 -0.000256308 -0.00590566 0.00730924
295 1 0.655158 -9.30657 -17.9971 -0.306543 0.833838 2.53653 -0.000424493 -0.00752592 0.00423732
296 5 0.0224637 -9.45741 -15.3591 -0.265467 -12.5442 4.78094 0.0032739 -0.00238198 0.00458321
297 2 0.0669123 -12.8663 -17.2044 -2.11676 -2.60524 -0.194692 -0.00317088 -0.00443762 0.0047658
298 2 -0.623898 -13.9554 -16.0015 -0.476182 0.567325 0.280418 0.00316741 -0.00424045 0.0103849
299 2 -1.44309 -11.0225 -13.5651 -2.64783 -1.71978 -0.699631 0.0060135 -0.00533921 0.00574908
300 2 -1.38805 -12.817 -13.6787 2.3135 0.0480366 2.02356 -0.0119807 0.000161874 0.00180471
301 2 0.0957715 -11.8204 -13.5924 -0.776786 -1.46881 2.38604 0.00257986 -0.0120084 0.00236618
302 6 1.15131 -9.53339 -18.9488 -2.33354 -1.70631 -0.520966 -0.00333497 -0.0104612 0.00342234
303 6 -0.150316 -8.58243 -18.1709 0.517296 0.372636 -0.731151 -0.00330499 -0.0100643 0.00700356
304 6 1.38882 -8.83845 -17.3292 2.03847 0.185199 -2.31351 0.00473236 -0.00950151 -4.9623e-05
305 1 -2.36769 -12.0028 -16.1626 15.0481 15.7908 -0.433588 0.00214589 0.00140565 0.00405239
306 1 -3.5382 -11.002 -15.7597 -7.0948 9.19073 -3.85281 -9.3896e-05 -0.00120286 0.00237368
307 1 -3.01836 -9.51307 -15.6167 2.24301 -3.58272 2.77841 -0.000595517 -0.00294817 0.000464383
308 3 -4.58742 -11.0755 -16.9534 -9.46342 4.69373 -5.35982 0.000638491 -0.00121618 0.00175901
309 4 -4.12702 -10.4527 -18.1127 0.812054 -6.14419 14.0546 0.00284624 0.00290058 0.00297174
310 1 -4.97465 -10.3665 -19.2695 -2.3489 0.147703 4.33364 0.00390937 0.00539741 0.000156058
311 5 -5.69986 -11.5933 -16.8652 9.55816 -2.31077 -9.26322 -1.29833e-05 -0.00143585 0.00103976
312 2 -2.24406 -11.883 -17.246 2.4776 -4.81176 -0.271776 0.00321518 0.0129002 0.0054316
313 2 -2.71897 -13.0342 -16.0351 1.05429 1.85707 2.10803 0.00049669 0.000853926 -0.00492165
314 2 -3.82619 -8.77255 -15.5671 -0.140733 -0.664378 0.155469 -0.000662579 -0.00290412 -0.00128701
315 2 -2.40586 -9.18489 -16.4655 -2.6717 -3.94027 -3.15532 0.00363152 -0.00516636 0.00265413
316 2 -2.40858 -9.39587 -14.7123 -1.07189 2.10367 0.630668 -0.00618391 -0.00514063 0.00451595
317 6 -5.1912 -11.3619 -19.6766 0.898729 -0.345294 0.76162 5.23408e-05 0.0067032 -0.000987703
318 6 -4.49369 -9.7544 -20.0425 -0.714409 -0.823343 -0.433056 0.01042 0.00128936 0.000954028