LAMMPS data file via GBCG Mapping, version 1 2023-07-20

49 atoms
5 atom types
48 bonds
4 bond types
47 angles
5 angle types
46 dihedrals
4 dihedral types

-100.0 100.0 xlo xhi
-100.0 100.0 ylo yhi
-100.0 100.0 zlo zhi

Masses

1   301.3590
2   314.3780
3   286.3240
4   114.1440
5   215.2690

Pair Coeffs

1         0.1000     6.4714
2         0.1000     6.5948
3         0.1000     6.4856
4         0.1000     4.9084
5         0.1000     5.9640

Bond Coeffs

1  100.000    4.409
2  100.000    5.312
3  100.000    7.787
4  100.000    6.329

Angle Coeffs

1 25.0   112.1327
2 25.0   115.7063
3 25.0   119.2452
4 25.0   134.0697
5 25.0   114.9373

Dihedral Coeffs

1     0.0000     0.0000     0.0000     0.0000
2     0.0000     0.0000     0.0000     0.0000
3     0.0000     0.0000     0.0000     0.0000
4     0.0000     0.0000     0.0000     0.0000

Atoms

1 1 5    0.000        -0.20912        -1.31311         0.52670 0 0 0
2 1 4    0.000         0.31363        -5.02293        -1.79860 0 0 0
3 1 3    0.000        -1.39273        -4.71275        -5.77901 0 0 0
4 1 4    0.000         0.06207       -10.00646        -7.90962 0 0 0
5 1 3    0.000         0.33282       -13.66027        -5.39162 0 0 0
6 1 4    0.000         5.71937       -15.73133        -6.78191 0 0 0
7 1 3    0.000         7.63479       -18.45658       -10.84662 0 0 0
8 1 4    0.000         6.90147       -15.02340       -14.10795 0 0 0
9 1 3    0.000         3.34135       -17.50715       -17.36960 0 0 0
10 1 4    0.000         1.36972       -13.89021       -14.70901 0 0 0
11 1 3    0.000        -3.39659       -10.22855       -15.63051 0 0 0
12 1 4    0.000        -6.85672       -13.17330       -11.64074 0 0 0
13 1 3    0.000        -4.70325       -17.00936       -10.34983 0 0 0
14 1 4    0.000        -7.01718       -20.66584       -12.77368 0 0 0
15 1 3    0.000        -3.68841       -21.05463       -18.17687 0 0 0
16 1 4    0.000        -4.39723       -18.83358       -22.79991 0 0 0
17 1 3    0.000        -7.82174       -19.42748       -25.34259 0 0 0
18 1 4    0.000        -6.43432       -19.16727       -30.32385 0 0 0
19 1 3    0.000        -5.58387       -22.26349       -34.27528 0 0 0
20 1 4    0.000        -9.13597       -26.37587       -32.62247 0 0 0
21 1 3    0.000       -13.13583       -23.22552       -31.99640 0 0 0
22 1 4    0.000       -17.23554       -20.19332       -34.37009 0 0 0
23 1 3    0.000       -20.53265       -18.04449       -32.13474 0 0 0
24 1 4    0.000       -25.19457       -15.39052       -31.00675 0 0 0
25 1 3    0.000       -26.75762        -9.96465       -33.60069 0 0 0
26 1 4    0.000       -25.03444        -4.70213       -33.88172 0 0 0
27 1 3    0.000       -20.25647        -5.52666       -35.42639 0 0 0
28 1 4    0.000       -19.53199        -8.18857       -31.22431 0 0 0
29 1 3    0.000       -15.61362       -10.71921       -29.53378 0 0 0
30 1 4    0.000       -10.27894        -9.46068       -27.62031 0 0 0
31 1 3    0.000       -10.28116        -9.50434       -23.38170 0 0 0
32 1 4    0.000        -9.94319        -7.30051       -18.21859 0 0 0
33 1 3    0.000       -12.00117        -9.44436       -14.37015 0 0 0
34 1 4    0.000       -13.56699       -12.84979       -11.45996 0 0 0
35 1 3    0.000       -12.04025       -17.09695       -15.45841 0 0 0
36 1 4    0.000       -16.03269       -18.45518       -18.74234 0 0 0
37 1 3    0.000       -17.19151       -17.89701       -24.35217 0 0 0
38 1 4    0.000       -20.07409       -13.99302       -23.33268 0 0 0
39 1 3    0.000       -19.40793       -11.92985       -18.73667 0 0 0
40 1 4    0.000       -22.83563       -15.59717       -16.31977 0 0 0
41 1 3    0.000       -25.15375       -19.95213       -17.84319 0 0 0
42 1 4    0.000       -30.53570       -20.53666       -18.51759 0 0 0
43 1 3    0.000       -35.08523       -17.27631       -15.75269 0 0 0
44 1 4    0.000       -36.13705       -12.28239       -13.17492 0 0 0
45 1 3    0.000       -31.53342       -10.12760       -10.62209 0 0 0
46 1 4    0.000       -29.79091       -15.53717        -8.94278 0 0 0
47 1 3    0.000       -26.28493       -17.21260        -6.14097 0 0 0
48 1 2    0.000       -23.54328       -24.32908        -4.56655 0 0 0
49 1 1    0.000       -19.04453       -26.38871        -8.51253 0 0 0

Bonds

1 1 1 2
2 2 2 3
3 2 3 4
4 2 4 5
5 2 5 6
6 2 6 7
7 2 7 8
8 2 8 9
9 2 9 10
10 2 10 11
11 2 11 12
12 2 12 13
13 2 13 14
14 2 14 15
15 2 15 16
16 2 16 17
17 2 17 18
18 2 18 19
19 2 19 20
20 2 20 21
21 2 21 22
22 2 22 23
23 2 23 24
24 2 24 25
25 2 25 26
26 2 26 27
27 2 27 28
28 2 28 29
29 2 29 30
30 2 30 31
31 2 31 32
32 2 32 33
33 2 33 34
34 2 34 35
35 2 35 36
36 2 36 37
37 2 37 38
38 2 38 39
39 2 39 40
40 2 40 41
41 2 41 42
42 2 42 43
43 2 43 44
44 2 44 45
45 2 45 46
46 2 46 47
47 3 47 48
48 4 48 49

Angles

1 1 1 2 3
2 2 2 3 4
3 3 3 4 5
4 2 4 5 6
5 3 5 6 7
6 2 6 7 8
7 3 7 8 9
8 2 8 9 10
9 3 9 10 11
10 2 10 11 12
11 3 11 12 13
12 2 12 13 14
13 3 13 14 15
14 2 14 15 16
15 3 15 16 17
16 2 16 17 18
17 3 17 18 19
18 2 18 19 20
19 3 19 20 21
20 2 20 21 22
21 3 21 22 23
22 2 22 23 24
23 3 23 24 25
24 2 24 25 26
25 3 25 26 27
26 2 26 27 28
27 3 27 28 29
28 2 28 29 30
29 3 29 30 31
30 2 30 31 32
31 3 31 32 33
32 2 32 33 34
33 3 33 34 35
34 2 34 35 36
35 3 35 36 37
36 2 36 37 38
37 3 37 38 39
38 2 38 39 40
39 3 39 40 41
40 2 40 41 42
41 3 41 42 43
42 2 42 43 44
43 3 43 44 45
44 2 44 45 46
45 3 45 46 47
46 4 46 47 48
47 5 47 48 49

Dihedrals

1 1 1 2 3 4
2 2 2 3 4 5
3 2 3 4 5 6
4 2 4 5 6 7
5 2 5 6 7 8
6 2 6 7 8 9
7 2 7 8 9 10
8 2 8 9 10 11
9 2 9 10 11 12
10 2 10 11 12 13
11 2 11 12 13 14
12 2 12 13 14 15
13 2 13 14 15 16
14 2 14 15 16 17
15 2 15 16 17 18
16 2 16 17 18 19
17 2 17 18 19 20
18 2 18 19 20 21
19 2 19 20 21 22
20 2 20 21 22 23
21 2 21 22 23 24
22 2 22 23 24 25
23 2 23 24 25 26
24 2 24 25 26 27
25 2 25 26 27 28
26 2 26 27 28 29
27 2 27 28 29 30
28 2 28 29 30 31
29 2 29 30 31 32
30 2 30 31 32 33
31 2 31 32 33 34
32 2 32 33 34 35
33 2 33 34 35 36
34 2 34 35 36 37
35 2 35 36 37 38
36 2 36 37 38 39
37 2 37 38 39 40
38 2 38 39 40 41
39 2 39 40 41 42
40 2 40 41 42 43
41 2 41 42 43 44
42 2 42 43 44 45
43 2 43 44 45 46
44 2 44 45 46 47
45 3 45 46 47 48
46 4 46 47 48 49
