ITEM: TIMESTEP
	0
ITEM: NUMBER OF ATOMS
	196
ITEM: BOX BOUNDS pp pp pp
  -27.5000   27.5000
  -38.5000   38.5000
  -36.3646   36.3615
ITEM: ATOMS id type x y z
1         12       -7.7894    -11.4197    -29.5950
2         110      -3.9048     -6.4253    -28.9045
3         72        3.0156     -5.6549    -29.2255
4         21        7.7904     -1.3717    -25.9627
5         71        1.0105     -3.9512    -25.4541
6         43       -3.5841     -2.9305    -24.8538
7         109      -8.0597     -2.1396    -28.1520
8         70       -6.3069     -3.6493    -33.8627
9         42       -8.0967     -1.1011     34.1683
10        144      -4.4391      2.2649    -32.9602
11        108      -0.1320      3.6884    -32.9735
12        20        2.0755      4.5757    -26.6963
13        109       5.3358      5.6123    -23.3987
14        41        3.5971      9.4751    -28.6501
15        19       -2.1842      8.7946    -27.0291
16        69       -6.6946      8.4661    -26.9341
17        136      -9.8288      4.8684    -24.7496
18        11      -12.4170     11.5136    -23.1541
19        68      -15.6398     12.0374    -19.8494
20        107     -12.6853      9.9255    -18.4856
21        67       -8.4438     11.9948    -18.0242
22        106     -12.6225     11.5348    -13.3807
23        135      -7.9293     11.1939    -12.1997
24        40       -9.7126     10.0134     -7.5147
25        39       -5.0794     13.4697     -6.3964
26        134      -7.3525     12.4132     -2.8821
27        105      -3.9480     14.7196     -1.5265
28        133      -4.1401     12.1867      2.9079
29        10        1.1643     15.6186      2.5077
30        132      -0.6534     13.0307      7.8380
31        38        4.4484     12.2452      5.2341
32        104       3.1245     13.8637     10.6588
33        131       6.6425     10.5818      9.8229
34        66        8.6737     16.0906     12.8339
35        130       6.8487     11.6663     15.5206
36        65       11.4746     13.2568     16.5326
37        18        8.7583     12.5368     20.2720
38        103      12.9665      9.9054     23.5348
39        129       7.0080      9.3357     24.0132
40        108       9.3141      6.3825     20.2378
41        17        5.9297      0.7748     20.8177
42        64        3.7887      2.1675     17.2108
43        37        8.9145      0.4448     13.7817
44        134       4.7940      2.8827     11.9829
45        65        5.7464      1.5696      7.9456
46        143       5.2861      5.0768      5.4868
47        63        2.1354      4.5580      2.1762
48        62        6.3232      6.1353      0.1985
49        102       1.1994      5.2067     -2.3514
50        101       4.7639      9.7408     -4.8201
51        36        0.6081      7.0924     -7.2531
52        128       1.0226      8.6577    -12.1823
53        131      -1.9823     12.2537    -11.2523
54        66        1.8129     14.3326    -13.1459
55        100      -2.1955     11.4831    -16.8368
56        9        -0.4208     15.8561    -17.7781
57        61        1.2397     12.6515    -22.9345
58        109       3.7237      8.4077    -19.6215
59        60        8.8150     12.1362    -17.8804
60        8        10.5216      5.5396    -18.5333
61        127       5.9634      4.1527    -15.9425
62        65        8.8143      3.4060    -12.9930
63        99        4.0776      2.0284    -10.1704
64        98        9.4352      2.0992     -6.2858
65        126       4.8948     -1.3806     -4.8199
66        125       6.7778     -0.7580     -0.9315
67        59        5.4064     -4.8671      1.1041
68        135       1.8935     -5.9633      3.3784
69        16        4.9710     -9.7504      3.7426
70        124       3.5797     -6.0102      7.8903
71        123      -0.0127     -8.9122      8.5451
72        123       2.4000     -8.1722     12.5108
73        136       0.4823    -12.1917     14.1175
74        35       -0.0499     -8.6828     18.5865
75        66       -1.9300    -16.1188     18.7562
76        142       1.2169    -14.3426     21.9118
77        144      -3.3406    -12.0070     23.3204
78        34       -3.1537    -16.2292     24.8263
79        7         2.9383    -19.3151     24.9383
80        70        6.8685    -18.3936     30.0385
81        33        9.4083    -12.0908     25.5724
82        109       6.4946     -8.7668     24.8964
83        97       11.3948     -2.6840     21.5691
84        96       12.6316     -6.9033     19.7427
85        6         9.2566     -7.5367     18.4577
86        105      12.7767     -6.3430     14.1191
87        122      10.8818     -4.7419     10.5178
88        58       11.3934     -9.2641      7.8065
89        121      10.1225     -6.0395      5.0736
90        141      12.4982     -0.7091      3.7502
91        95       12.0159     -9.8401      2.2063
92        120      12.3660     -5.0994     -1.2393
93        57       10.8828     -8.1201     -4.4595
94        32       12.9542     -5.5325     -7.4708
95        15       12.7523     -4.2576    -11.5320
96        119      16.2334     -6.3663    -13.7200
97        141      11.8660    -13.0803    -11.3741
98        118       9.8986     -9.0458    -15.7497
99        117       8.0247     -5.6146    -20.4553
100       66        7.2656     -3.1668    -14.1674
101       15        2.3038     -1.4525    -19.2127
102       97       -3.6203     -1.1555    -17.3578
103       31       -5.2151      3.0725    -20.2730
104       56       -2.6192      5.6271    -16.0572
105       145       0.5095      0.4274    -14.6735
106       132       2.9785     -6.0147    -14.0617
107       140       4.1758     -8.2846    -18.9722
108       69       -0.1544     -9.3462    -18.2214
109       17        5.1464    -12.4928    -24.0175
110       4        11.3448    -16.2085    -24.0059
111       30       14.0363    -13.9946    -21.7159
112       94        9.9505    -14.0624    -17.5057
113       93        5.6410    -16.3323    -16.7529
114       55        7.6398    -13.4500    -11.5903
115       123       3.4753    -16.0597    -10.5876
116       14        6.7568    -12.5939     -6.8126
117       109       0.4919    -12.1422     -7.2883
118       139       3.1941    -17.0426     -4.1449
119       3         2.3578    -11.7299     -2.2311
120       134      -0.6137    -16.6360     -0.9823
121       92        0.6179    -15.9354      3.2928
122       116      -3.3506    -16.9301      4.3669
123       123      -2.2769    -15.4413      8.5369
124       91       -7.0774    -16.0808      7.2812
125       29       -3.8216    -19.0034     12.8924
126       54       -9.1358    -14.1469     12.4896
127       90       -7.7845    -19.7067     16.6493
128       123      -9.7880    -14.6280     17.1956
129       109     -12.3535    -19.4039     19.6573
130       115     -11.4106    -14.1918     21.8934
131       28      -15.5539    -10.1783     18.5411
132       138     -15.9584     -2.3438     21.0383
133       89      -14.9704      3.7363     25.8755
134       53       -9.0017      6.4763     28.1469
135       114      -6.0355      6.1339     29.8467
136       113      -2.8569      0.6590     30.1804
137       107      -6.3060     -4.3337     29.0283
138       52       -7.9781      0.0225     27.1722
139       88       -3.4224     -3.6002     23.3905
140       28       -8.7813     -1.9881     21.6311
141       130      -5.1031     -4.8384     18.6297
142       27       -8.9781     -1.7197     16.4236
143       123      -7.6294     -6.1839     13.2334
144       105      -7.8207     -3.6070      9.7832
145       123      -9.3182     -6.6812      7.1141
146       51       -6.5230     -4.7601      3.2760
147       134      -9.4588     -6.6958      1.1411
148       87       -7.9698     -4.5126     -2.6614
149       141      -3.2098     -3.3713     -3.2229
150       50       -9.1450     -9.0480     -5.0512
151       49       -4.4182     -6.0951     -9.4066
152       112      -7.2537    -10.3982    -10.7793
153       51       -4.0157    -14.4987    -12.2565
154       37       -8.9646    -12.7334    -16.2199
155       109      -1.9330    -15.3491    -16.8306
156       2        -7.9468    -17.3140    -17.9713
157       86       -5.6642    -14.4662    -23.0894
158       48      -12.5673    -12.4263    -23.7245
159       85       -9.7657     -7.7549    -22.0501
160       15      -12.0594     -0.9265    -20.1868
161       109     -12.5940     -5.6059    -16.4399
162       47       -8.5643     -2.6758    -16.2542
163       46      -12.0868     -0.8872    -11.9024
164       84       -8.0528     -2.0809    -10.0718
165       91       -7.5134      3.2270    -10.2708
166       51       -9.5268     -0.2576     -5.0358
167       26        0.9663     -5.0115     -5.5153
168       1        -4.9705      2.6507     -5.9230
169       124      -4.3469      3.4516     -0.0474
170       137      -6.4708      5.7275      2.8889
171       13       -4.7635      1.7163      4.5018
172       43       -4.4733      6.5233      8.2793
173       129      -6.1840      2.8458     11.2172
174       37       -1.5524      6.3954     13.7491
175       83       -7.5458      7.1248     13.5347
176       82       -5.9250      6.0614     18.5268
177       25       -4.6533      8.4708     22.7467
178       109      -0.5524      7.0414     19.5535
179       81       -4.8713     11.6234     17.9067
180       24       -0.0160     13.3100     20.9099
181       80       -0.7473     15.7996     16.8853
182       128       2.4716     18.4394     20.1217
183       79        1.6392     21.9993     17.9230
184       111       4.4269     24.2317     22.0356
185       78        0.3990     25.0201     27.5034
186       5        -3.0356     21.3338     26.6556
187       45       -8.0230     18.2215     32.0208
188       77       -5.4396     12.6456     33.9449
189       76        1.0022     10.9978     33.9928
190       128       7.6589     11.3050     33.9799
191       75        7.5878     13.4697     28.6925
192       74        9.8047     18.8038     25.1903
193       23        8.9191     19.0440     30.8113
194       73       14.7598     15.0177     31.5779
195       44       18.3125     13.2409     35.3333
196       22       19.3542     20.2207     34.5683
