ITEM: TIMESTEP
	0
ITEM: NUMBER OF ATOMS
	49
ITEM: BOX BOUNDS pp pp pp
 -100.0000  100.0000
 -100.0000  100.0000
 -100.0000  100.0000
ITEM: ATOMS id type x y z
1         5        -0.2091     -1.3131      0.5267
2         4         0.3136     -5.0229     -1.7986
3         3        -1.3927     -4.7127     -5.7790
4         4         0.0621    -10.0065     -7.9096
5         3         0.3328    -13.6603     -5.3916
6         4         5.7194    -15.7313     -6.7819
7         3         7.6348    -18.4566    -10.8466
8         4         6.9015    -15.0234    -14.1079
9         3         3.3413    -17.5071    -17.3696
10        4         1.3697    -13.8902    -14.7090
11        3        -3.3966    -10.2286    -15.6305
12        4        -6.8567    -13.1733    -11.6407
13        3        -4.7033    -17.0094    -10.3498
14        4        -7.0172    -20.6658    -12.7737
15        3        -3.6884    -21.0546    -18.1769
16        4        -4.3972    -18.8336    -22.7999
17        3        -7.8217    -19.4275    -25.3426
18        4        -6.4343    -19.1673    -30.3239
19        3        -5.5839    -22.2635    -34.2753
20        4        -9.1360    -26.3759    -32.6225
21        3       -13.1358    -23.2255    -31.9964
22        4       -17.2355    -20.1933    -34.3701
23        3       -20.5327    -18.0445    -32.1347
24        4       -25.1946    -15.3905    -31.0068
25        3       -26.7576     -9.9647    -33.6007
26        4       -25.0344     -4.7021    -33.8817
27        3       -20.2565     -5.5267    -35.4264
28        4       -19.5320     -8.1886    -31.2243
29        3       -15.6136    -10.7192    -29.5338
30        4       -10.2789     -9.4607    -27.6203
31        3       -10.2812     -9.5043    -23.3817
32        4        -9.9432     -7.3005    -18.2186
33        3       -12.0012     -9.4444    -14.3702
34        4       -13.5670    -12.8498    -11.4600
35        3       -12.0403    -17.0969    -15.4584
36        4       -16.0327    -18.4552    -18.7423
37        3       -17.1915    -17.8970    -24.3522
38        4       -20.0741    -13.9930    -23.3327
39        3       -19.4079    -11.9298    -18.7367
40        4       -22.8356    -15.5972    -16.3198
41        3       -25.1538    -19.9521    -17.8432
42        4       -30.5357    -20.5367    -18.5176
43        3       -35.0852    -17.2763    -15.7527
44        4       -36.1370    -12.2824    -13.1749
45        3       -31.5334    -10.1276    -10.6221
46        4       -29.7909    -15.5372     -8.9428
47        3       -26.2849    -17.2126     -6.1410
48        2       -23.5433    -24.3291     -4.5665
49        1       -19.0445    -26.3887     -8.5125
